45824
Atoms. Timestep: 1933
Cu -0.80459 -49.9637 -7.91346
Cu -1.5314 -48.2615 -2.19588
Cu -0.275403 -45.4311 -20.6273
Cu -4.59171 -47.4854 -14.3151
Cu -1.74122 -46.2522 -15.7798
Cu -6.04599 -48.1818 -9.44702
Cu -3.21936 -46.7856 -11.0175
Cu -0.376267 -45.6177 -12.4793
Cu -7.45359 -48.8966 -4.65025
Cu -4.59268 -47.3563 -6.17897
Cu -1.79759 -46.0198 -7.79865
Cu -6.34043 -48.0341 -1.33757
Cu -3.00832 -46.5304 -3.03026
Cu -0.303447 -45.5858 -4.35064
Cu -5.99781 -44.2012 -22.4876
Cu -3.72433 -43.2469 -24.0459
Cu -0.673275 -42.0516 -25.7858
Cu -10.5278 -46.3799 -15.977
Cu -7.55795 -45.061 -17.617
Cu -4.61744 -43.5744 -19.1768
Cu -1.40916 -42.7356 -20.7959
Cu -12.0201 -47.1301 -11.0813
Cu -9.0972 -45.75 -12.7708
Cu -6.16878 -44.3491 -14.3477
Cu -3.16738 -42.906 -15.8906
Cu 0.00742299 -41.6882 -17.3796
Cu -13.4695 -47.7161 -6.08361
Cu -10.56 -46.3344 -7.82812
Cu -7.65615 -44.9989 -9.48823
Cu -4.72157 -43.578 -11.0816
Cu -1.67556 -42.2333 -12.6
Cu -12.0756 -46.9303 -2.98765
Cu -9.11581 -45.6804 -4.69002
Cu -6.16126 -44.208 -6.23478
Cu -3.19305 -42.8075 -7.78875
Cu -0.387714 -41.3811 -9.26952
Cu -7.60769 -45.1357 -1.56769
Cu -4.69032 -43.4177 -3.0026
Cu -1.88369 -41.8401 -4.45203
Cu -0.479872 -40.4988 -0.594821
Cu -9.22103 -41.7124 -25.6888
Cu -6.31006 -40.2809 -27.2872
Cu -3.3888 -39.015 -28.867
Cu -0.439162 -37.6261 -30.4115
Cu -13.5151 -43.8774 -19.2394
Cu -10.571 -42.4884 -20.8466
Cu -7.7554 -41.0765 -22.4345
Cu -4.8427 -39.6411 -24.0705
Cu -1.91718 -38.3685 -25.5603
Cu -15.0357 -44.6361 -14.3911
Cu -12.1107 -43.2394 -16.0062
Cu -9.13586 -41.8259 -17.6176
Cu -6.12167 -40.4326 -19.1939
Cu -3.32079 -38.9668 -20.7841
Cu -0.350734 -37.6518 -22.7998
Cu -16.512 -45.3465 -9.51824
Cu -13.6124 -43.9722 -11.1581
Cu -10.6721 -42.548 -12.7842
Cu -7.69816 -41.148 -14.3942
Cu -4.70164 -39.7551 -15.9842
Cu -1.70718 -38.3333 -17.6688
Cu -17.9326 -45.9348 -4.59725
Cu -15.08 -44.5938 -6.27226
Cu -12.1558 -43.2212 -7.92019
Cu -9.22516 -41.8223 -9.55814
Cu -6.26087 -40.4247 -11.1579
Cu -3.28222 -38.9673 -12.7457
Cu -0.590082 -37.6691 -14.2079
Cu -16.4479 -44.9577 -1.27522
Cu -13.6246 -43.7018 -2.97995
Cu -10.6743 -42.4043 -4.64738
Cu -7.77614 -41.0409 -6.26837
Cu -4.87714 -39.6399 -7.90992
Cu -1.92514 -38.1876 -9.49791
Cu -9.38418 -41.684 -1.44302
Cu -6.33963 -40.0916 -3.00895
Cu -3.31385 -38.8207 -4.57926
Cu -0.70248 -37.5114 -6.26785
Cu -1.67049 -38.1723 -0.710593
Cu -12.189 -39.074 -28.8805
Cu -9.30102 -37.7365 -30.5072
Cu -6.34289 -36.3244 -32.1198
Cu -3.64268 -34.9252 -33.6237
Cu -0.848264 -34.2504 -35.3254
Cu -16.5358 -41.275 -22.447
Cu -13.645 -39.8736 -24.0601
Cu -10.7822 -38.5058 -25.6701
Cu -7.82477 -37.0876 -27.2744
Cu -4.87565 -35.6988 -28.8479
Cu -2.04147 -34.4285 -30.3664
Cu -18.0407 -42.0384 -17.633
Cu -15.1158 -40.657 -19.2317
Cu -12.1843 -39.2426 -20.8309
Cu -9.28138 -37.8463 -22.425
Cu -6.3586 -36.4348 -24.0226
Cu -3.43031 -35.0366 -25.6188
Cu -0.415012 -33.6702 -27.1382
Cu -19.5399 -42.7614 -12.788
Cu -16.6249 -41.4015 -14.4048
Cu -13.6836 -40.0007 -16.0137
Cu -10.7286 -38.5936 -17.6181
Cu -7.8023 -37.1827 -19.2038
Cu -4.87536 -35.772 -20.8081
Cu -2.00123 -34.295 -22.3284
Cu -21.0079 -43.4486 -7.94814
Cu -18.1119 -42.1007 -9.56793
Cu -15.1904 -40.7189 -11.189
Cu -12.2469 -39.3215 -12.81
Cu -9.29226 -37.9189 -14.4185
Cu -6.36355 -36.5121 -16.0222
Cu -3.5156 -35.0465 -17.5826
Cu -0.671564 -33.3011 -19.2456
Cu -22.4143 -44.2544 -3.19359
Cu -19.56 -42.7967 -4.75216
Cu -16.654 -41.3902 -6.36827
Cu -13.7445 -40.0121 -7.99908
Cu -10.8068 -38.63 -9.61302
Cu -7.86433 -37.2213 -11.2175
Cu -4.95521 -35.7938 -12.7892
Cu -1.99467 -34.3223 -14.4033
Cu -18.2051 -41.9236 -1.4673
Cu -15.1016 -40.595 -3.1763
Cu -12.2999 -39.2561 -4.76319
Cu -9.3658 -37.9309 -6.38694
Cu -6.4398 -36.5151 -7.97573
Cu -3.48749 -34.9989 -9.56685
Cu -0.741075 -33.2994 -10.9334
Cu -11.0266 -38.1144 -1.33471
Cu -7.69146 -37.2637 -3.01479
Cu -5.04594 -35.7158 -4.69128
Cu -1.99809 -34.2257 -6.18849
Cu -2.10884 -35.3736 -1.43669
Cu -0.392146 -34.1607 -2.71358
Cu -12.2719 -35.0501 -33.6573
Cu -9.41645 -33.6953 -35.3081
Cu -6.51227 -32.2725 -36.8836
Cu -3.40828 -30.9775 -38.4003
Cu -0.473078 -30.1008 -39.4623
Cu -19.5393 -38.6065 -25.6022
Cu -16.7074 -37.2896 -27.2903
Cu -13.7441 -35.8579 -28.8535
Cu -10.8408 -34.4789 -30.4857
Cu -7.95676 -33.0716 -32.0507
Cu -5.01456 -31.6642 -33.6355
Cu -2.13906 -30.3749 -35.0157
Cu -21.0441 -39.4136 -20.8515
Cu -18.1313 -38.0273 -22.4466
Cu -15.2239 -36.6332 -24.0543
Cu -12.3178 -35.2364 -25.6541
Cu -9.38335 -33.834 -27.2358
Cu -6.46508 -32.4217 -28.8173
Cu -3.58462 -31.0012 -30.3457
Cu -0.624626 -29.6075 -32.2886
Cu -22.5405 -40.1552 -16.0301
Cu -19.625 -38.7884 -17.6294
Cu -16.6997 -37.3841 -19.2219
Cu -13.7743 -35.9755 -20.8213
Cu -10.8651 -34.5768 -22.4248
Cu -7.95502 -33.1708 -24.0168
Cu -5.03448 -31.7387 -25.6019
Cu -2.12653 -30.3142 -27.283
Cu -24.0268 -40.8788 -11.1805
Cu -21.1199 -39.5147 -12.7978
Cu -18.194 -38.1245 -14.4063
Cu -15.2643 -36.7274 -16.0107
Cu -12.3416 -35.3229 -17.6164
Cu -9.43581 -33.912 -19.2186
Cu -6.55658 -32.4866 -20.8149
Cu -3.66546 -31.0266 -22.4129
Cu -0.593483 -29.7861 -23.8872
Cu -25.5039 -41.522 -6.23907
Cu -22.6011 -40.1885 -7.91593
Cu -19.6841 -38.8197 -9.57509
Cu -16.7616 -37.4413 -11.191
Cu -13.8264 -36.0562 -12.8152
Cu -10.9052 -34.6578 -14.4219
Cu -8.02465 -33.2452 -16.0153
Cu -5.17601 -31.81 -17.5933
Cu -2.23113 -30.4207 -19.2038
Cu -27.862 -41.023 -0.554538
Cu -24.1377 -40.815 -2.95615
Cu -21.1241 -39.4804 -4.76456
Cu -18.2583 -38.0996 -6.33659
Cu -15.3168 -36.7437 -8.00656
Cu -12.3787 -35.3707 -9.62649
Cu -9.46335 -33.9821 -11.2106
Cu -6.57828 -32.5765 -12.7903
Cu -3.7908 -31.1456 -14.3836
Cu -0.951071 -29.8644 -15.8357
Cu -19.5898 -39.0359 -1.54427
Cu -16.8053 -37.3705 -3.20614
Cu -13.8683 -36.0507 -4.8727
Cu -10.9152 -34.699 -6.4359
Cu -8.00917 -33.3216 -7.97724
Cu -5.13181 -31.9231 -9.51683
Cu -1.27665 -30.6887 -10.9774
Cu -11.9616 -35.4865 -1.69324
Cu -9.51873 -34.0616 -3.24483
Cu -6.50439 -32.7578 -4.70983
Cu -3.3271 -31.36 -6.23274
Cu -0.313104 -29.5884 -7.87275
Cu -4.96592 -32.0628 -1.34165
Cu -2.20911 -30.3305 -2.90679
Cu -19.6285 -34.5966 -30.4547
Cu -16.7789 -33.251 -32.0959
Cu -13.8326 -31.8733 -33.7016
Cu -10.9198 -30.4443 -35.2696
Cu -7.93005 -29.0577 -36.8486
Cu -4.8982 -27.6748 -38.3948
Cu -1.99538 -26.337 -39.8774
Cu -24.0104 -36.7462 -24.0219
Cu -21.1758 -35.4288 -25.6831
Cu -18.2443 -34.0158 -27.2717
Cu -15.3062 -32.6108 -28.8675
Cu -12.4044 -31.2078 -30.4551
Cu -9.48733 -29.8174 -32.0485
Cu -6.54567 -28.4178 -33.6291
Cu -3.54233 -26.9984 -35.2119
Cu -0.563735 -25.5539 -36.6495
Cu -25.5353 -37.5196 -19.2505
Cu -22.6212 -36.1507 -20.8405
Cu -19.7001 -34.7414 -22.4326
Cu -16.8014 -33.3602 -24.0428
Cu -13.8771 -31.9552 -25.6315
Cu -10.9543 -30.5519 -27.2223
Cu -8.04721 -29.1518 -28.8097
Cu -5.12211 -27.7493 -30.4152
Cu -2.25379 -26.2788 -31.9737
Cu -27.0216 -38.2586 -14.4365
Cu -24.1123 -36.897 -16.0273
Cu -21.1914 -35.5008 -17.6183
Cu -18.2717 -34.0984 -19.2121
Cu -15.3561 -32.6954 -20.811
Cu -12.4448 -31.2923 -22.4113
Cu -9.52258 -29.8822 -24.0007
Cu -6.58447 -28.4757 -25.5911
Cu -3.75421 -27.035 -27.1266
Cu 0.171331 -24.7299 -31.3953
Cu -28.4868 -39.0044 -9.62061
Cu -25.5939 -37.6364 -11.1989
Cu -22.6784 -36.2366 -12.7967
Cu -19.7587 -34.8367 -14.3954
Cu -16.8402 -33.4383 -15.9956
Cu -13.9282 -32.0357 -17.599
Cu -11.0213 -30.6261 -19.1948
Cu -8.09441 -29.2111 -20.7796
Cu -5.10601 -27.8188 -22.3424
Cu -1.99251 -26.2444 -23.9428
Cu -29.9324 -39.7191 -4.76937
Cu -27.0658 -38.3639 -6.3421
Cu -24.1546 -36.967 -7.95514
Cu -21.2454 -35.5548 -9.56645
Cu -18.3247 -34.1631 -11.1788
Cu -15.4005 -32.7724 -12.7956
Cu -12.49 -31.3773 -14.3938
Cu -9.59733 -29.9733 -15.9729
Cu -6.65543 -28.5611 -17.5546
Cu -3.57766 -27.1795 -19.1468
Cu -0.39798 -26.0648 -20.6799
Cu -28.7156 -38.8307 -1.41752
Cu -25.6832 -37.5467 -3.05704
Cu -22.7266 -36.2417 -4.66169
Cu -19.8168 -34.8575 -6.32294
Cu -16.8816 -33.4795 -7.98815
Cu -13.9479 -32.1028 -9.60905
Cu -11.0297 -30.7294 -11.168
Cu -8.13094 -29.3406 -12.7286
Cu -5.19932 -27.9524 -14.2929
Cu -2.00212 -26.6084 -15.8869
Cu -21.2214 -35.4372 -1.20747
Cu -18.4458 -34.0398 -3.07098
Cu -15.3805 -32.7696 -4.85879
Cu -12.5151 -31.4171 -6.3455
Cu -9.55081 -30.0887 -7.91149
Cu -6.55328 -28.7706 -9.45234
Cu -3.68133 -27.3557 -11.067
Cu -0.78003 -25.9114 -12.8303
Cu -13.9781 -32.1176 -1.49364
Cu -11.0623 -30.7541 -3.12969
Cu -8.11515 -29.4713 -4.65549
Cu -5.1409 -28.127 -6.31819
Cu -2.26625 -26.6407 -7.98343
Cu -6.815 -29.0316 -1.55184
Cu -3.61059 -27.6402 -3.11518
Cu -0.90082 -25.5446 -4.48004
Cu -16.7844 -29.1688 -36.8772
Cu -13.8513 -27.8165 -38.499
Cu -10.8619 -26.4514 -40.0853
Cu -7.89023 -25.0849 -41.6531
Cu -4.99868 -23.7307 -43.1859
Cu -1.93319 -22.394 -44.6358
Cu -24.1086 -32.7253 -28.8524
Cu -21.2467 -31.405 -30.5175
Cu -18.3001 -29.9834 -32.0723
Cu -15.3919 -28.597 -33.6913
Cu -12.4311 -27.2 -35.2792
Cu -9.46267 -25.8155 -36.8662
Cu -6.49127 -24.4213 -38.4239
Cu -3.5262 -23.0513 -39.9776
Cu -0.508127 -22.0638 -41.6297
Cu -28.4563 -34.8449 -22.41
Cu -25.6416 -33.5434 -24.0801
Cu -22.7191 -32.1417 -25.6712
Cu -19.7889 -30.7271 -27.2533
Cu -16.8762 -29.3384 -28.8536
Cu -13.9446 -27.939 -30.4471
Cu -11.0215 -26.5418 -32.0439
Cu -8.08245 -25.1451 -33.6329
Cu -5.13151 -23.7312 -35.2115
Cu -2.11055 -22.2658 -36.8083
Cu -30.0052 -35.6029 -17.6354
Cu -27.0988 -34.2454 -19.2392
Cu -24.1775 -32.8511 -20.8275
Cu -21.2756 -31.477 -22.4336
Cu -18.3565 -30.0794 -24.0243
Cu -15.4298 -28.677 -25.6166
Cu -12.5088 -27.2792 -27.2115
Cu -9.59319 -25.8842 -28.8079
Cu -6.69552 -24.4819 -30.3998
Cu -3.76494 -23.0822 -32.0096
Cu -0.799077 -21.7229 -33.5158
Cu -31.479 -36.3356 -12.8217
Cu -28.5808 -34.9902 -14.4262
Cu -25.6638 -33.6021 -16.0125
Cu -22.7495 -32.2062 -17.6019
Cu -19.8326 -30.8082 -19.1935
Cu -16.9193 -29.4145 -20.7926
Cu -13.9941 -28.0154 -22.3871
Cu -11.0512 -26.6177 -23.9744
Cu -8.13859 -25.2335 -25.5542
Cu -5.23812 -23.8683 -27.1363
Cu -2.36265 -22.5518 -28.676
Cu -32.8702 -37.0184 -7.92281
Cu -30.0434 -35.7101 -9.61103
Cu -27.1389 -34.3373 -11.1944
Cu -24.2309 -32.9448 -12.7837
Cu -21.3146 -31.5463 -14.3751
Cu -18.3995 -30.1475 -15.9695
Cu -15.4836 -28.75 -17.5666
Cu -12.5565 -27.3566 -19.1567
Cu -9.59339 -25.9715 -20.7336
Cu -6.57688 -24.5962 -22.2935
Cu -3.81597 -23.2776 -23.8427
Cu -0.262894 -20.0382 -26.1372
Cu -31.662 -36.6788 -5.01295
Cu -28.6142 -35.066 -6.40572
Cu -25.6995 -33.6713 -7.965
Cu -22.7944 -32.2745 -9.552
Cu -19.8816 -30.8757 -11.1494
Cu -16.9596 -29.4825 -12.7554
Cu -14.0396 -28.0927 -14.3445
Cu -11.1114 -26.7108 -15.9195
Cu -8.13401 -25.3451 -17.4951
Cu -5.0942 -23.9888 -19.0675
Cu -2.01046 -22.5896 -20.5971
Cu -30.5843 -35.6298 -1.57362
Cu -27.2597 -34.4699 -3.19791
Cu -24.2679 -33.0496 -4.75988
Cu -21.3485 -31.5877 -6.31756
Cu -18.4445 -30.2029 -7.94862
Cu -15.5085 -28.8295 -9.55611
Cu -12.584 -27.4596 -11.1219
Cu -9.65746 -26.092 -12.686
Cu -6.6968 -24.729 -14.2768
Cu -3.74603 -23.3259 -15.8667
Cu -0.601433 -21.8593 -17.5332
Cu -23.0412 -32.2967 -1.36781
Cu -19.7853 -30.9662 -3.13915
Cu -16.9633 -29.5421 -4.74352
Cu -14.0449 -28.2182 -6.33061
Cu -11.1268 -26.8604 -7.90808
Cu -8.2314 -25.4876 -9.47769
Cu -5.31968 -24.1027 -11.074
Cu -2.34816 -22.7119 -12.7066
Cu -15.621 -28.7077 -1.3847
Cu -12.5034 -27.5746 -2.99903
Cu -9.68009 -26.2154 -4.61428
Cu -6.83304 -24.8821 -6.2044
Cu -3.96087 -23.5111 -7.8278
Cu -1.12064 -22.1645 -9.28924
Cu -9.18764 -24.7282 -0.660715
Cu -5.39124 -24.2311 -2.72635
Cu -2.77392 -22.8989 -4.27967
Cu 0.102242 -20.5452 -0.930329
Cu -24.1605 -28.6778 -33.6602
Cu -21.276 -27.3346 -35.302
Cu -18.3441 -26.0007 -36.9163
Cu -15.3615 -24.54 -38.4608
Cu -12.4121 -23.1641 -40.0556
Cu -9.47568 -21.7926 -41.6435
Cu -6.49563 -20.4542 -43.2292
Cu -3.90443 -19.3077 -45.2719
Cu -1.73709 -18.1328 -46.5619
Cu -28.5773 -30.8294 -27.2365
Cu -25.723 -29.5202 -28.9071
Cu -22.7825 -28.1181 -30.4849
Cu -19.8343 -26.7126 -32.0721
Cu -16.9057 -25.3156 -33.6623
Cu -13.9632 -23.924 -35.2644
Cu -11.0029 -22.5269 -36.8489
Cu -8.05189 -21.1451 -38.4363
Cu -5.06957 -19.7944 -40.07
Cu -1.84747 -18.4779 -41.5207
Cu -30.0981 -31.6423 -22.4728
Cu -27.1813 -30.2479 -24.0599
Cu -24.255 -28.8453 -25.6478
Cu -21.3458 -27.4663 -27.2514
Cu -18.4138 -26.0658 -28.8369
Cu -15.478 -24.666 -30.4304
Cu -12.5414 -23.2656 -32.0239
Cu -9.59842 -21.863 -33.6127
Cu -6.6369 -20.4643 -35.2002
Cu -3.64412 -19.0935 -36.7872
Cu -0.270957 -14.4439 -38.6774
Cu -31.5724 -32.3276 -17.6309
Cu -28.6635 -30.9644 -19.231
Cu -25.7419 -29.5863 -20.828
Cu -22.8225 -28.1949 -22.4146
Cu -19.8995 -26.7997 -24.0036
Cu -16.9732 -25.4078 -25.5987
Cu -14.0428 -24.0132 -27.191
Cu -11.1174 -22.6152 -28.7795
Cu -8.17657 -21.2159 -30.3587
Cu -5.21017 -19.8267 -31.9244
Cu -2.24244 -18.451 -33.441
Cu -33.052 -33.0604 -12.8077
Cu -30.1406 -31.6871 -14.4092
Cu -27.216 -30.3023 -15.996
Cu -24.2991 -28.9159 -17.5826
Cu -21.383 -27.5279 -19.1746
Cu -18.4611 -26.1384 -20.7675
Cu -15.5264 -24.75 -22.3598
Cu -12.587 -23.3643 -23.9443
Cu -9.66729 -21.9789 -25.522
Cu -6.753 -20.5846 -27.0967
Cu -3.76779 -19.2104 -28.6451
Cu -0.665293 -17.9948 -30.0531
Cu -34.5361 -33.8531 -8.00891
Cu -31.6192 -32.4283 -9.60263
Cu -28.69 -31.0348 -11.1909
Cu -25.7785 -29.6501 -12.7632
Cu -22.861 -28.2549 -14.3498
Cu -19.943 -26.8614 -15.9382
Cu -17.0186 -25.4741 -17.5317
Cu -14.08 -24.0955 -19.1208
Cu -11.1253 -22.725 -20.6988
Cu -8.19182 -21.3484 -22.2618
Cu -5.30785 -19.9622 -23.8342
Cu -2.28822 -18.5873 -25.3573
Cu -36.5808 -33.7744 -2.66823
Cu -33.1043 -33.0735 -4.74298
Cu -30.1682 -31.7425 -6.39561
Cu -27.2512 -30.379 -7.92174
Cu -24.3353 -28.9888 -9.53154
Cu -21.4245 -27.5945 -11.1148
Cu -18.5021 -26.1988 -12.7092
Cu -15.572 -24.8122 -14.3008
Cu -12.6354 -23.442 -15.8782
Cu -9.68944 -22.0824 -17.4614
Cu -6.7504 -20.7158 -19.0517
Cu -3.88256 -19.3052 -20.6144
Cu -0.815375 -17.9373 -22.6551
Cu -32.0371 -33.0179 -2.107
Cu -28.9057 -31.0337 -2.9763
Cu -25.7586 -29.6859 -4.69906
Cu -22.8844 -28.3173 -6.24456
Cu -19.9826 -26.926 -7.86202
Cu -17.0537 -25.5392 -9.50124
Cu -14.1353 -24.1566 -11.0632
Cu -11.2043 -22.7896 -12.6411
Cu -8.27242 -21.4291 -14.235
Cu -5.34263 -20.059 -15.8223
Cu -2.42175 -18.6387 -17.4904
Cu -24.4272 -29.4054 -1.58187
Cu -21.4892 -27.5579 -2.84469
Cu -18.5081 -26.2599 -4.73829
Cu -15.6116 -24.8908 -6.29491
Cu -12.727 -23.546 -7.84739
Cu -9.77964 -22.172 -9.4403
Cu -6.84958 -20.7919 -11.0057
Cu -3.938 -19.433 -12.5649
Cu -1.07516 -17.9098 -14.0128
Cu -16.8852 -25.6623 -1.68678
Cu -14.2074 -24.3487 -3.14514
Cu -11.3001 -23.0057 -4.71902
Cu -8.37746 -21.6427 -6.23778
Cu -5.44559 -20.2181 -7.73096
Cu -2.52777 -18.9095 -9.18095
Cu -9.89208 -22.3325 -1.35609
Cu -7.08715 -20.9904 -2.8928
Cu -4.05475 -19.7161 -4.43291
Cu -1.03545 -18.6612 -5.80844
Cu -1.99612 -19.3935 -0.845078
Cu -18.2896 -21.8454 -41.6182
Cu -15.4072 -20.491 -43.1999
Cu -12.5064 -19.1136 -44.808
Cu -9.74158 -17.7365 -46.3934
Cu -25.7319 -25.4624 -33.7011
Cu -22.7755 -24.0474 -35.2552
Cu -19.8541 -22.6839 -36.866
Cu -16.9127 -21.3166 -38.479
Cu -13.9539 -19.9225 -40.0717
Cu -11.0447 -18.5502 -41.6631
Cu -8.1913 -17.1647 -43.2846
Cu -5.46599 -15.7663 -44.8558
Cu -2.43293 -14.5896 -46.488
Cu -30.1532 -27.6231 -27.2773
Cu -27.2394 -26.2237 -28.8543
Cu -24.32 -24.8276 -30.4571
Cu -21.3754 -23.4376 -32.0584
Cu -18.426 -22.0469 -33.647
Cu -15.4791 -20.6464 -35.2317
Cu -12.5258 -19.2524 -36.8205
Cu -9.58529 -17.8766 -38.4236
Cu -6.72144 -16.5282 -40.0248
Cu -3.93739 -15.1566 -41.6084
Cu -1.03095 -14.0136 -43.135
Cu -34.5182 -29.6646 -20.8207
Cu -31.6261 -28.3253 -22.4141
Cu -28.7346 -26.9557 -24.0372
Cu -25.805 -25.5782 -25.6377
Cu -22.8795 -24.1877 -27.2264
Cu -19.9442 -22.7919 -28.8165
Cu -17.0032 -21.3952 -30.4076
Cu -14.0548 -19.9963 -31.996
Cu -11.0934 -18.5988 -33.5788
Cu -8.12216 -17.2133 -35.16
Cu -5.29333 -15.833 -36.7233
Cu -2.61275 -14.492 -38.3096
Cu -36.0009 -30.3999 -16.0016
Cu -33.1252 -29.0776 -17.617
Cu -30.2048 -27.6885 -19.2168
Cu -27.2817 -26.3005 -20.8026
Cu -24.3631 -24.9136 -22.3918
Cu -21.4381 -23.5293 -23.9849
Cu -18.5077 -22.1415 -25.5773
Cu -15.5721 -20.7476 -27.1672
Cu -12.6297 -19.3498 -28.7515
Cu -9.6689 -17.9548 -30.3265
Cu -6.68535 -16.5711 -31.8739
Cu -3.68254 -15.2176 -33.3572
Cu -0.543191 -13.8897 -34.6942
Cu -37.4801 -31.0992 -11.1783
Cu -34.6052 -29.795 -12.7946
Cu -31.6894 -28.4065 -14.3904
Cu -28.762 -27.0203 -15.9792
Cu -25.8405 -25.6351 -17.563
Cu -22.9199 -24.2494 -19.1497
Cu -19.9946 -22.8665 -20.7415
Cu -17.0632 -21.4863 -22.3348
Cu -14.1335 -20.1022 -23.9228
Cu -11.2056 -18.7111 -25.5034
Cu -8.25824 -17.3211 -27.0742
Cu -5.27282 -15.9439 -28.6244
Cu -2.31208 -14.5478 -30.1216
Cu -36.0664 -30.4845 -7.98409
Cu -33.1649 -29.1311 -9.57671
Cu -30.2362 -27.7467 -11.164
Cu -27.3169 -26.3589 -12.7397
Cu -24.3988 -24.9688 -14.3196
Cu -21.4766 -23.5808 -15.907
Cu -18.5483 -22.2004 -17.5006
Cu -15.6176 -20.8286 -19.0924
Cu -12.6938 -19.455 -20.6767
Cu -9.78802 -18.0725 -22.2591
Cu -6.86458 -16.6851 -23.8417
Cu -3.94387 -15.2748 -25.3991
Cu -0.937588 -13.8789 -26.9194
Cu -37.6018 -31.4444 -3.2153
Cu -34.674 -29.9226 -4.82865
Cu -31.7001 -28.5026 -6.38665
Cu -28.7735 -27.1134 -7.9269
Cu -25.8684 -25.7117 -9.49473
Cu -22.9579 -24.3096 -11.0773
Cu -20.0358 -22.9142 -12.6723
Cu -17.1026 -21.5312 -14.2647
Cu -14.1722 -20.1641 -15.8432
Cu -11.2608 -18.803 -17.4303
Cu -8.3618 -17.4267 -19.012
Cu -5.49617 -16.0591 -20.6158
Cu -2.60208 -14.6439 -22.1714
Cu -33.3726 -29.0429 -1.4797
Cu -30.2582 -27.8572 -3.11479
Cu -27.2923 -26.4996 -4.64394
Cu -24.4071 -25.0752 -6.23594
Cu -21.5199 -23.6587 -7.85256
Cu -18.6047 -22.247 -9.46297
Cu -15.6712 -20.87 -11.0139
Cu -12.7325 -19.5014 -12.5886
Cu -9.80008 -18.1365 -14.1673
Cu -6.94855 -16.8025 -15.7639
Cu -4.04907 -15.4074 -17.3086
Cu -1.44616 -14.005 -18.884
Cu -25.927 -25.6524 -1.18033
Cu -22.9291 -24.3369 -2.95373
Cu -20.0688 -22.9365 -4.6786
Cu -17.2244 -21.5723 -6.16599
Cu -14.2742 -20.2204 -7.74695
Cu -11.2986 -18.8523 -9.34166
Cu -8.33817 -17.4907 -10.9021
Cu -5.3768 -16.1237 -12.4074
Cu -2.87959 -14.8652 -13.906
Cu -18.5367 -21.9168 -1.09061
Cu -16.1154 -20.7591 -2.48264
Cu -12.9147 -19.6019 -4.5863
Cu -9.87507 -18.2637 -6.16642
Cu -6.88956 -16.9026 -7.61637
Cu -3.84886 -15.5799 -9.03644
Cu -0.817807 -14.4085 -10.0691
Cu -11.6272 -19.2479 -1.55385
Cu -8.5491 -17.8957 -3.10178
Cu -5.56029 -16.4014 -4.30136
Cu -2.57572 -14.9814 -5.44858
Cu -4.61135 -16.0221 -0.924895
Cu -1.85465 -14.5203 -1.65448
Cu -22.7549 -19.9943 -40.04
Cu -19.8545 -18.6582 -41.6371
Cu -16.9503 -17.2801 -43.2329
Cu -14.0927 -15.8928 -44.8258
Cu -11.2009 -14.4799 -46.4407
Cu -8.24484 -13.0615 -48.0165
Cu -30.179 -23.5608 -32.0538
Cu -27.2997 -22.2515 -33.6983
Cu -24.319 -20.8153 -35.2646
Cu -21.3874 -19.4353 -36.8665
Cu -18.4227 -18.0116 -38.4224
Cu -15.4986 -16.6216 -40.0102
Cu -12.6103 -15.2362 -41.6039
Cu -9.73895 -13.8428 -43.2093
Cu -6.77268 -12.4996 -44.8524
Cu -3.75196 -11.1975 -46.394
Cu -0.71244 -9.97433 -47.9293
Cu -34.5641 -25.6728 -25.6135
Cu -31.7368 -24.3478 -27.2503
Cu -28.7882 -22.9694 -28.8661
Cu -25.8455 -21.5668 -30.4436
Cu -22.9071 -20.1687 -32.0334
Cu -19.9507 -18.769 -33.6184
Cu -16.9989 -17.3778 -35.2052
Cu -14.0466 -15.9832 -36.785
Cu -11.133 -14.5951 -38.3675
Cu -8.25888 -13.208 -39.9594
Cu -5.32211 -11.8664 -41.5787
Cu -2.31415 -10.5981 -43.1635
Cu -36.1087 -26.4573 -20.8212
Cu -33.1927 -25.0687 -22.4343
Cu -30.2658 -23.6854 -24.0219
Cu -27.3463 -22.3017 -25.6121
Cu -24.4129 -20.9144 -27.2036
Cu -21.4739 -19.523 -28.7958
Cu -18.5276 -18.1277 -30.3866
Cu -15.5697 -16.7281 -31.9715
Cu -12.6051 -15.3325 -33.5485
Cu -9.66852 -13.9423 -35.1109
Cu -6.76355 -12.5626 -36.6697
Cu -3.77368 -11.3003 -38.2634
Cu -0.90084 -10.0067 -39.7101
Cu -37.6059 -27.1741 -16.0018
Cu -34.6811 -25.7911 -17.5973
Cu -31.7452 -24.4042 -19.1861
Cu -28.822 -23.0209 -20.7785
Cu -25.8987 -21.6412 -22.369
Cu -22.9724 -20.259 -23.9616
Cu -20.0407 -18.8739 -25.5556
Cu -17.1018 -17.4825 -27.1477
Cu -14.1501 -16.0814 -28.734
Cu -11.1856 -14.6809 -30.3062
Cu -8.21851 -13.2918 -31.8525
Cu -5.21156 -11.9186 -33.4133
Cu -2.27321 -10.6519 -35.0057
Cu -39.0736 -27.9028 -11.1736
Cu -36.1624 -26.5126 -12.7747
Cu -33.2293 -25.1329 -14.3668
Cu -30.3009 -23.7432 -15.9534
Cu -27.376 -22.3559 -17.5354
Cu -24.4525 -20.9738 -19.1233
Cu -21.5273 -19.5956 -20.7176
Cu -18.6024 -18.2186 -22.3126
Cu -15.6765 -16.8348 -23.9042
Cu -12.7415 -15.4364 -25.4914
Cu -9.79261 -14.03 -27.0674
Cu -6.83257 -12.6269 -28.6309
Cu -3.8277 -11.2517 -30.2035
Cu -0.803972 -9.8993 -31.8475
Cu -40.4869 -28.5639 -6.31326
Cu -37.6509 -27.2404 -7.92431
Cu -34.7012 -25.8481 -9.53059
Cu -31.772 -24.4673 -11.1317
Cu -28.8525 -23.0784 -12.7108
Cu -25.9326 -21.6888 -14.2908
Cu -23.0065 -20.3029 -15.8802
Cu -20.0785 -18.9247 -17.4746
Cu -17.1584 -17.5555 -19.0663
Cu -14.249 -16.184 -20.6544
Cu -11.3386 -14.7971 -22.2425
Cu -8.42076 -13.3898 -23.827
Cu -5.4742 -11.987 -25.4007
Cu -2.50346 -10.6188 -26.9333
Cu -39.1303 -27.9008 -3.10658
Cu -36.2317 -26.5706 -4.64864
Cu -33.242 -25.1887 -6.31555
Cu -30.305 -23.8065 -7.88748
Cu -27.4039 -22.418 -9.46064
Cu -24.4933 -21.0189 -11.0495
Cu -21.5655 -19.6261 -12.6435
Cu -18.6289 -18.2489 -14.2319
Cu -15.7059 -16.8852 -15.8099
Cu -12.8075 -15.5281 -17.3889
Cu -9.92544 -14.1579 -18.9728
Cu -7.04676 -12.7658 -20.5511
Cu -4.14713 -11.3624 -22.1094
Cu -1.15157 -10.0507 -23.6232
Cu -34.797 -26.2239 -1.72324
Cu -31.8011 -24.6895 -3.19014
Cu -28.8441 -23.2108 -4.67383
Cu -25.9529 -21.7533 -6.23332
Cu -23.0682 -20.3322 -7.82075
Cu -20.1346 -18.9498 -9.41731
Cu -17.189 -17.5779 -10.9844
Cu -14.2502 -16.2165 -12.5453
Cu -11.3372 -14.8669 -14.1021
Cu -8.47711 -13.5142 -15.6592
Cu -5.66046 -12.1377 -17.2052
Cu -2.75476 -10.7766 -18.7737
Cu -27.3806 -22.6946 -1.53225
Cu -24.4642 -21.14 -3.07019
Cu -21.67 -19.6892 -4.64984
Cu -18.7198 -18.2967 -6.19592
Cu -15.775 -16.9296 -7.74305
Cu -12.814 -15.5663 -9.28811
Cu -9.85444 -14.2152 -10.8036
Cu -6.98668 -12.8565 -12.2832
Cu -4.1382 -11.5383 -13.8583
Cu -1.29688 -10.3146 -15.3271
Cu -20.5803 -18.3056 -0.971951
Cu -17.2335 -17.6221 -2.88634
Cu -14.386 -16.2938 -4.49919
Cu -11.4198 -14.935 -6.01641
Cu -8.45506 -13.5913 -7.51075
Cu -5.48826 -12.2704 -8.98217
Cu -2.68226 -10.8589 -10.4556
Cu -13.756 -14.9043 -0.635751
Cu -9.98647 -14.3274 -2.63852
Cu -7.15202 -12.9778 -4.14632
Cu -4.29 -11.6611 -5.62982
Cu -1.17815 -10.3942 -7.00357
Cu -4.06455 -13.4482 -1.51209
Cu -2.88125 -11.0479 -2.28071
Cu -27.2001 -18.1288 -38.434
Cu -24.3033 -16.8012 -40.0486
Cu -21.4006 -15.4341 -41.6445
Cu -18.4953 -14.0641 -43.2466
Cu -15.5844 -12.6809 -44.851
Cu -12.641 -11.3039 -46.4565
Cu -9.60594 -9.86638 -48.0499
Cu -6.55683 -8.45727 -49.5175
Cu -31.7347 -20.3407 -32.0804
Cu -28.7832 -18.9381 -33.6497
Cu -25.8688 -17.5755 -35.2674
Cu -22.8955 -16.1414 -36.8212
Cu -19.956 -14.7441 -38.4025
Cu -17.0349 -13.3553 -39.9832
Cu -14.1177 -11.9754 -41.5806
Cu -11.1768 -10.6153 -43.1927
Cu -8.17667 -9.24998 -44.7941
Cu -5.14003 -7.87366 -46.4111
Cu -2.09398 -6.56059 -47.8204
Cu -36.1562 -22.4468 -25.6441
Cu -33.2343 -21.0693 -27.2305
Cu -30.3219 -19.697 -28.8366
Cu -27.3793 -18.3114 -30.4334
Cu -24.4302 -16.9051 -32.0133
Cu -21.4825 -15.502 -33.5974
Cu -18.5221 -14.0867 -35.1689
Cu -15.5771 -12.6866 -36.7454
Cu -12.6479 -11.3088 -38.3274
Cu -9.69793 -9.95152 -39.9262
Cu -6.72197 -8.62557 -41.5274
Cu -3.74867 -7.28803 -43.0964
Cu -0.73231 -5.94782 -44.6219
Cu -37.6393 -23.1496 -20.8063
Cu -34.7294 -21.7999 -22.408
Cu -31.8064 -20.421 -24.0055
Cu -28.8769 -19.0385 -25.594
Cu -25.9437 -17.6508 -27.1819
Cu -23.0033 -16.2575 -28.7739
Cu -20.0549 -14.8574 -30.3647
Cu -17.0985 -13.4553 -31.9529
Cu -14.1377 -12.0484 -33.5299
Cu -11.179 -10.6554 -35.0993
Cu -8.20989 -9.31182 -36.6835
Cu -5.28565 -7.96008 -38.2732
Cu -2.34624 -6.60981 -39.8254
Cu -39.1302 -23.8755 -15.9701
Cu -36.2132 -22.5154 -17.5746
Cu -33.2814 -21.1299 -19.1653
Cu -30.3561 -19.7506 -20.7554
Cu -27.4324 -18.3727 -22.3451
Cu -24.504 -16.9924 -23.9383
Cu -21.5703 -15.6077 -25.5343
Cu -18.6305 -14.2202 -27.1292
Cu -15.6794 -12.8238 -28.7198
Cu -12.7142 -11.4047 -30.3053
Cu -9.73506 -10.0011 -31.8833
Cu -6.75289 -8.64129 -33.4647
Cu -3.82252 -7.26509 -35.0451
Cu -0.965634 -5.8346 -36.5019
Cu -40.6145 -24.5936 -11.1219
Cu -37.6925 -23.2415 -12.7438
Cu -34.7635 -21.8531 -14.3391
Cu -31.8369 -20.4648 -15.9249
Cu -28.911 -19.0804 -17.5085
Cu -25.9853 -17.7025 -19.099
Cu -23.0585 -16.3252 -20.6958
Cu -20.1332 -14.9477 -22.2921
Cu -17.2067 -13.5707 -23.8816
Cu -14.2695 -12.1789 -25.4646
Cu -11.3115 -10.754 -27.0526
Cu -8.33017 -9.33785 -28.6412
Cu -5.31732 -7.9716 -30.2255
Cu -2.46081 -6.51446 -31.6887
Cu -42.1027 -25.3581 -6.2932
Cu -39.1816 -23.9867 -7.91251
Cu -36.2329 -22.5956 -9.51238
Cu -33.3085 -21.1975 -11.1031
Cu -30.3901 -19.7998 -12.6809
Cu -27.4673 -18.4089 -14.2647
Cu -24.5376 -17.0265 -15.8585
Cu -21.608 -15.6497 -17.4545
Cu -18.6888 -14.2775 -19.045
Cu -15.78 -12.9121 -20.6264
Cu -12.8628 -11.5332 -22.2015
Cu -9.91488 -10.1286 -23.7736
Cu -6.93297 -8.7031 -25.3452
Cu -3.91475 -7.32825 -26.8875
Cu -1.96936 -4.71496 -29.9121
Cu -40.6504 -24.6563 -3.06774
Cu -37.7299 -23.3337 -4.66361
Cu -34.7738 -21.9504 -6.26901
Cu -31.8533 -20.5452 -7.84878
Cu -28.9474 -19.1362 -9.43524
Cu -26.0265 -17.7344 -11.0307
Cu -23.0905 -16.3456 -12.6254
Cu -20.1551 -14.969 -14.2113
Cu -17.2335 -13.6031 -15.7889
Cu -14.3368 -12.2524 -17.3574
Cu -11.451 -10.9043 -18.9221
Cu -8.52397 -9.52331 -20.484
Cu -5.50856 -8.13996 -22.0292
Cu -2.47519 -6.77589 -23.5016
Cu -36.2597 -22.5431 -1.40172
Cu -33.3104 -21.2794 -2.91974
Cu -30.3905 -19.8652 -4.55115
Cu -27.5047 -18.4551 -6.18514
Cu -24.5946 -17.0451 -7.80498
Cu -21.655 -15.6583 -9.38515
Cu -18.7069 -14.2834 -10.9668
Cu -15.7751 -12.9231 -12.5172
Cu -12.8711 -11.5836 -14.0626
Cu -10.0081 -10.2645 -15.594
Cu -7.11943 -8.93666 -17.151
Cu -4.11142 -7.57513 -18.7283
Cu -1.05028 -6.18154 -20.2077
Cu -28.7956 -19.4483 -1.37272
Cu -26.0662 -17.6005 -2.91667
Cu -23.1922 -16.2881 -4.43679
Cu -20.2292 -14.9527 -6.19746
Cu -17.2895 -13.6072 -7.69064
Cu -14.324 -12.2456 -9.25714
Cu -11.4124 -10.9045 -10.7466
Cu -8.51883 -9.59696 -12.2318
Cu -5.63933 -8.29091 -13.7888
Cu -2.71346 -6.88494 -15.4379
Cu -21.8393 -15.8482 -1.71593
Cu -18.9429 -14.2304 -2.80145
Cu -15.8705 -12.9651 -4.54785
Cu -12.9061 -11.6117 -5.97774
Cu -10.002 -10.2339 -7.4241
Cu -7.09757 -8.89637 -8.9212
Cu -3.99592 -7.62467 -10.5302
Cu -1.17718 -6.32235 -12.0704
Cu -14.5384 -12.4731 -1.27939
Cu -11.5745 -11.028 -2.63422
Cu -8.64613 -9.5913 -4.10957
Cu -5.7327 -8.20992 -5.75468
Cu -2.68213 -7.00537 -7.32942
Cu -7.16435 -9.00783 -0.915322
Cu -4.40822 -7.20315 -2.71874
Cu -1.35338 -5.97244 -5.05882
Cu -28.719 -14.9554 -38.4497
Cu -25.8444 -13.5734 -40.0599
Cu -22.9507 -12.2034 -41.667
Cu -19.9754 -10.7983 -43.1982
Cu -17.0402 -9.43782 -44.8049
Cu -14.0691 -8.07516 -46.5133
Cu -11.0594 -6.79482 -48.0319
Cu -7.98896 -5.22037 -49.5433
Cu -33.2793 -17.1007 -32.0683
Cu -30.3216 -15.7048 -33.645
Cu -27.4097 -14.3178 -35.2476
Cu -24.429 -12.8922 -36.8225
Cu -21.4907 -11.4933 -38.4027
Cu -18.5501 -10.1143 -39.9837
Cu -15.5798 -8.73563 -41.591
Cu -12.6196 -7.40262 -43.2124
Cu -9.62042 -6.07052 -44.7938
Cu -6.57665 -4.67161 -46.4023
Cu -3.49571 -3.05216 -47.7922
Cu -37.6943 -19.1694 -25.6407
Cu -34.7685 -17.8057 -27.2201
Cu -31.8552 -16.438 -28.8205
Cu -28.9114 -15.0535 -30.4052
Cu -25.9625 -13.6533 -31.9903
Cu -23.0151 -12.2318 -33.5722
Cu -20.0573 -10.8123 -35.1495
Cu -17.096 -9.39169 -36.7361
Cu -14.1348 -8.0235 -38.3304
Cu -11.18 -6.70421 -39.9277
Cu -8.18816 -5.34532 -41.5326
Cu -5.18479 -4.06818 -43.0567
Cu -2.03164 -2.80803 -44.5276
Cu -39.1919 -19.9103 -20.7973
Cu -36.2547 -18.5208 -22.389
Cu -33.3343 -17.1483 -23.9853
Cu -30.4081 -15.7723 -25.5714
Cu -27.4742 -14.3937 -27.157
Cu -24.5298 -12.9971 -28.7438
Cu -21.5813 -11.5899 -30.331
Cu -18.6278 -10.168 -31.9145
Cu -15.6602 -8.74825 -33.5077
Cu -12.6876 -7.35076 -35.1112
Cu -9.73814 -5.97799 -36.7102
Cu -6.80596 -4.65276 -38.3146
Cu -3.75464 -3.18601 -39.8894
Cu -0.695875 -1.67629 -42.7539
Cu -40.6801 -20.6371 -15.9622
Cu -37.755 -19.244 -17.5589
Cu -34.8182 -17.8613 -19.1493
Cu -31.8889 -16.4804 -20.7366
Cu -28.9649 -15.1056 -22.3247
Cu -26.0345 -13.7293 -23.9149
Cu -23.0956 -12.344 -25.5088
Cu -20.1501 -10.9527 -27.1005
Cu -17.1998 -9.56878 -28.6921
Cu -14.2301 -8.17759 -30.2905
Cu -11.2379 -6.70172 -31.9229
Cu -8.28505 -5.32392 -33.5203
Cu -5.42399 -3.95988 -35.1495
Cu -2.58376 -2.00046 -37.9905
Cu -42.1487 -21.3548 -11.1084
Cu -39.2322 -19.9689 -12.7177
Cu -36.3017 -18.5822 -14.3145
Cu -33.3741 -17.1937 -15.9014
Cu -30.447 -15.8097 -17.4881
Cu -27.5189 -14.4327 -19.0811
Cu -24.5887 -13.0601 -20.6791
Cu -21.6562 -11.6784 -22.2775
Cu -18.7265 -10.3019 -23.8649
Cu -15.7862 -8.94537 -25.4353
Cu -12.8172 -7.57828 -27.0123
Cu -9.77583 -6.12242 -28.651
Cu -6.76773 -4.73416 -30.232
Cu -4.64433 -2.44009 -33.3616
Cu -1.42896 -1.28978 -35.0407
Cu -43.6743 -22.0276 -6.20884
Cu -40.697 -20.6876 -7.86899
Cu -37.7689 -19.3151 -9.48505
Cu -34.85 -17.9228 -11.0695
Cu -31.9298 -16.5249 -12.6501
Cu -29.0026 -15.1327 -14.2409
Cu -26.0704 -13.753 -15.8444
Cu -23.1377 -12.3792 -17.4451
Cu -20.2105 -11.0012 -19.0345
Cu -17.2957 -9.62575 -20.6069
Cu -14.3689 -8.27071 -22.1536
Cu -11.3807 -6.9059 -23.6972
Cu -8.31366 -5.57195 -25.2327
Cu -5.21173 -4.23856 -26.8629
Cu -1.81791 -2.63677 -28.2453
Cu -45.0578 -22.6606 -1.29847
Cu -42.2255 -21.4478 -3.09716
Cu -39.254 -20.0912 -4.71282
Cu -36.3055 -18.6938 -6.26219
Cu -33.3987 -17.2862 -7.81884
Cu -30.4891 -15.862 -9.4004
Cu -27.5579 -14.4525 -11.0105
Cu -24.6167 -13.0639 -12.6164
Cu -21.6856 -11.6936 -14.2057
Cu -18.7604 -10.3192 -15.7847
Cu -15.8512 -8.95353 -17.3451
Cu -12.9487 -7.61295 -18.8879
Cu -9.9791 -6.29756 -20.4117
Cu -6.88395 -4.84699 -21.9401
Cu -3.79083 -3.47244 -23.4435
Cu -0.703874 -2.34972 -25.1312
Cu -37.8096 -19.4389 -1.43332
Cu -34.813 -18.097 -2.97322
Cu -31.9411 -16.7036 -4.54837
Cu -29.0469 -15.2203 -6.17187
Cu -26.1105 -13.7704 -7.81389
Cu -23.1713 -12.3661 -9.39162
Cu -20.23 -11.0047 -10.953
Cu -17.3061 -9.64774 -12.52
Cu -14.3982 -8.28671 -14.0723
Cu -11.5192 -6.98816 -15.5951
Cu -8.61085 -5.72007 -17.1485
Cu -5.56245 -4.41376 -18.7475
Cu -2.37361 -2.88932 -20.1514